7
Lattice="3.57 0.0 0.0 0.0 3.57 0.0 0.0 0.0 3.57" Properties=species:S:1:pos:R:3:initial_magmoms:R:1:forces:R:3:magmoms:R:1 energy=-1273.5655391694945 free_energy=-1273.5655391694945 pbc="T T T"
N        0.00000000       0.00000000       0.00000000       2.00000000      -0.01329440      -0.01329440      -0.01329440       0.20060000
C        0.00000000       1.78500000       1.78500000       0.00000000      -0.17294371       0.07597944       0.07597944       0.29770000
C        0.89250000       2.67750000       2.67750000       0.00000000      -0.01626171       0.02527034       0.02527034      -0.01130000
C        1.78500000       0.00000000       1.78500000       0.00000000       0.07597944      -0.17294371       0.07597944       0.29770000
C        2.67750000       0.89250000       2.67750000       0.00000000       0.02527034      -0.01626171       0.02527034      -0.01130000
C        1.78500000       1.78500000       0.00000000       0.00000000       0.07597944       0.07597944      -0.17294371       0.29770000
C        2.67750000       2.67750000       0.89250000       0.00000000       0.02527034       0.02527034      -0.01626171      -0.01130000
