63
Lattice="7.14 0.0 0.0 0.0 7.14 0.0 0.0 0.0 7.14" Properties=species:S:1:pos:R:3:initial_magmoms:R:1:forces:R:3:magmoms:R:1 energy=-10747.814324441242 free_energy=-10747.814324441242 pbc="T T T"
C        0.00000000       0.00000000       0.00000000       0.00000000       0.00329615       0.00329615       0.00329615      -0.00020000
C        0.89250000       0.89250000       0.89250000       0.00000000      -0.00900735      -0.00900735      -0.00900735       0.00400000
C        0.00000000       1.78500000       1.78500000       0.00000000      -0.01226776      -0.01314502      -0.01314502      -0.00140000
C        0.89250000       2.67750000       2.67750000       0.00000000      -0.00979436      -0.00563277      -0.00563277       0.00690000
C        1.78500000       0.00000000       1.78500000       0.00000000      -0.01314502      -0.01226776      -0.01314502      -0.00140000
C        2.67750000       0.89250000       2.67750000       0.00000000      -0.00563277      -0.00979436      -0.00563277       0.00690000
C        1.78500000       1.78500000       0.00000000       0.00000000      -0.01314502      -0.01314502      -0.01226776      -0.00140000
C        2.67750000       2.67750000       0.89250000       0.00000000      -0.00563277      -0.00563277      -0.00979436       0.00690000
C        0.00000000       0.00000000       3.57000000       0.00000000       0.00053608       0.00053608       0.00115340       0.00780000
C        0.89250000       0.89250000       4.46250000       0.00000000       0.00040623       0.00040623       0.00475191       0.01690000
C        0.00000000       1.78500000       5.35500000       0.00000000       0.00671469      -0.00476631       0.00704122      -0.00150000
C        0.89250000       2.67750000       6.24750000       0.00000000      -0.00204248       0.00053299      -0.00539649       0.01740000
C        1.78500000       0.00000000       5.35500000       0.00000000      -0.00476631       0.00671469       0.00704122      -0.00150000
C        2.67750000       0.89250000       6.24750000       0.00000000       0.00053299      -0.00204248      -0.00539649       0.01740000
C        1.78500000       1.78500000       3.57000000       0.00000000      -0.00319922      -0.00319922      -0.01465760      -0.00320000
C        2.67750000       2.67750000       4.46250000       0.00000000      -0.00054970      -0.00054970      -0.00450354       0.22290000
C        0.00000000       3.57000000       0.00000000       0.00000000       0.00053608       0.00115340       0.00053608       0.00780000
C        0.89250000       4.46250000       0.89250000       0.00000000       0.00040623       0.00475191       0.00040623       0.01690000
C        0.00000000       5.35500000       1.78500000       0.00000000       0.00671469       0.00704122      -0.00476631      -0.00150000
C        0.89250000       6.24750000       2.67750000       0.00000000      -0.00204248      -0.00539649       0.00053299       0.01740000
C        1.78500000       3.57000000       1.78500000       0.00000000      -0.00319922      -0.01465760      -0.00319922      -0.00320000
C        2.67750000       4.46250000       2.67750000       0.00000000      -0.00054970      -0.00450354      -0.00054970       0.22290000
C        1.78500000       5.35500000       0.00000000       0.00000000      -0.00476631       0.00704122       0.00671469      -0.00150000
C        2.67750000       6.24750000       0.89250000       0.00000000       0.00053299      -0.00539649      -0.00204248       0.01740000
C        0.00000000       3.57000000       3.57000000       0.00000000       0.00140665      -0.00364480      -0.00364480      -0.00120000
C        0.89250000       4.46250000       4.46250000       0.00000000      -0.00196612       0.00858954       0.00858954       0.00610000
C        0.00000000       5.35500000       5.35500000       0.00000000       0.00446344       0.01389193       0.01389193      -0.00090000
C        0.89250000       6.24750000       6.24750000       0.00000000       0.00328124       0.00916933       0.00916933       0.00350000
C        1.78500000       3.57000000       5.35500000       0.00000000       0.00478277       0.00207000      -0.00904308      -0.00400000
C        2.67750000       4.46250000       6.24750000       0.00000000       0.00074099       0.00244383       0.00151258       0.00540000
C        1.78500000       5.35500000       3.57000000       0.00000000       0.00478277      -0.00904308       0.00207000      -0.00400000
C        2.67750000       6.24750000       4.46250000       0.00000000       0.00074099       0.00151258       0.00244383       0.00540000
C        3.57000000       0.00000000       0.00000000       0.00000000       0.00115340       0.00053608       0.00053608       0.00780000
C        4.46250000       0.89250000       0.89250000       0.00000000       0.00475191       0.00040623       0.00040623       0.01690000
C        3.57000000       1.78500000       1.78500000       0.00000000      -0.01465760      -0.00319922      -0.00319922      -0.00320000
C        4.46250000       2.67750000       2.67750000       0.00000000      -0.00450354      -0.00054970      -0.00054970       0.22290000
C        5.35500000       0.00000000       1.78500000       0.00000000       0.00704122       0.00671469      -0.00476631      -0.00150000
C        6.24750000       0.89250000       2.67750000       0.00000000      -0.00539649      -0.00204248       0.00053299       0.01740000
C        5.35500000       1.78500000       0.00000000       0.00000000       0.00704122      -0.00476631       0.00671469      -0.00150000
C        6.24750000       2.67750000       0.89250000       0.00000000      -0.00539649       0.00053299      -0.00204248       0.01740000
C        3.57000000       0.00000000       3.57000000       0.00000000      -0.00364480       0.00140665      -0.00364480      -0.00120000
C        4.46250000       0.89250000       4.46250000       0.00000000       0.00858954      -0.00196612       0.00858954       0.00610000
C        3.57000000       1.78500000       5.35500000       0.00000000       0.00207000       0.00478277      -0.00904308      -0.00400000
C        4.46250000       2.67750000       6.24750000       0.00000000       0.00244383       0.00074099       0.00151258       0.00540000
C        5.35500000       0.00000000       5.35500000       0.00000000       0.01389193       0.00446344       0.01389193      -0.00090000
C        6.24750000       0.89250000       6.24750000       0.00000000       0.00916933       0.00328124       0.00916933       0.00350000
C        5.35500000       1.78500000       3.57000000       0.00000000      -0.00904308       0.00478277       0.00207000      -0.00400000
C        6.24750000       2.67750000       4.46250000       0.00000000       0.00151258       0.00074099       0.00244383       0.00540000
C        3.57000000       3.57000000       0.00000000       0.00000000      -0.00364480      -0.00364480       0.00140665      -0.00120000
C        4.46250000       4.46250000       0.89250000       0.00000000       0.00858954       0.00858954      -0.00196612       0.00610000
C        3.57000000       5.35500000       1.78500000       0.00000000       0.00207000      -0.00904308       0.00478277      -0.00400000
C        4.46250000       6.24750000       2.67750000       0.00000000       0.00244383       0.00151258       0.00074099       0.00540000
C        5.35500000       3.57000000       1.78500000       0.00000000      -0.00904308       0.00207000       0.00478277      -0.00400000
C        6.24750000       4.46250000       2.67750000       0.00000000       0.00151258       0.00244383       0.00074099       0.00540000
C        5.35500000       5.35500000       0.00000000       0.00000000       0.01389193       0.01389193       0.00446344      -0.00090000
C        6.24750000       6.24750000       0.89250000       0.00000000       0.00916933       0.00916933       0.00328124       0.00350000
N        4.46250000       4.46250000       4.46250000       2.00000000      -0.00525919      -0.00525919      -0.00525919       0.08810000
C        3.57000000       5.35500000       5.35500000       0.00000000      -0.00123387       0.00057130       0.00057130       0.00150000
C        4.46250000       6.24750000       6.24750000       0.00000000       0.01355743       0.00180594       0.00180594       0.00750000
C        5.35500000       3.57000000       5.35500000       0.00000000       0.00057130      -0.00123387       0.00057130       0.00150000
C        6.24750000       4.46250000       6.24750000       0.00000000       0.00180594       0.01355743       0.00180594       0.00750000
C        5.35500000       5.35500000       3.57000000       0.00000000       0.00057130       0.00057130      -0.00123387       0.00150000
C        6.24750000       6.24750000       4.46250000       0.00000000       0.00180594       0.00180594       0.01355743       0.00750000
