215
Lattice="10.709999999999999 0.0 0.0 0.0 10.709999999999999 0.0 0.0 0.0 10.709999999999999" Properties=species:S:1:pos:R:3:initial_magmoms:R:1:forces:R:3:magmoms:R:1 energy=-36430.45900069816 free_energy=-36430.45900069816 pbc="T T T"
C        0.00000000       0.00000000       0.00000000       0.00000000      -0.00931691      -0.00931691      -0.00931691       0.00050000
C        0.89250000       0.89250000       0.89250000       0.00000000      -0.01472625      -0.01472625      -0.01472625       0.00000000
C        0.00000000       1.78500000       1.78500000       0.00000000      -0.00817611      -0.01154708      -0.01154708       0.00090000
C        0.89250000       2.67750000       2.67750000       0.00000000      -0.00148558      -0.00702374      -0.00702374      -0.00020000
C        1.78500000       0.00000000       1.78500000       0.00000000      -0.01154708      -0.00817611      -0.01154708       0.00090000
C        2.67750000       0.89250000       2.67750000       0.00000000      -0.00702374      -0.00148558      -0.00702374      -0.00020000
C        1.78500000       1.78500000       0.00000000       0.00000000      -0.01154708      -0.01154708      -0.00817611       0.00090000
C        2.67750000       2.67750000       0.89250000       0.00000000      -0.00702374      -0.00702374      -0.00148558      -0.00020000
C        0.00000000       0.00000000       3.57000000       0.00000000      -0.00258602      -0.00258602      -0.00941667       0.00080000
C        0.89250000       0.89250000       4.46250000       0.00000000       0.00130895       0.00130895      -0.00985144       0.00080000
C        0.00000000       1.78500000       5.35500000       0.00000000      -0.00353450      -0.00563560      -0.00553687       0.00020000
C        0.89250000       2.67750000       6.24750000       0.00000000      -0.00413922      -0.00445778       0.00027922      -0.00030000
C        1.78500000       0.00000000       5.35500000       0.00000000      -0.00563560      -0.00353450      -0.00553687       0.00020000
C        2.67750000       0.89250000       6.24750000       0.00000000      -0.00445778      -0.00413922       0.00027922      -0.00030000
C        1.78500000       1.78500000       3.57000000       0.00000000       0.00362217       0.00362217      -0.00584129       0.00540000
C        2.67750000       2.67750000       4.46250000       0.00000000       0.00727828       0.00727828      -0.00739835       0.00090000
C        0.00000000       0.00000000       7.14000000       0.00000000       0.00130175       0.00130175      -0.00457862       0.00020000
C        0.89250000       0.89250000       8.03250000       0.00000000      -0.00030673      -0.00030673      -0.00658717      -0.00000000
C        0.00000000       1.78500000       8.92500000       0.00000000      -0.00231759      -0.00233868      -0.00466578       0.00030000
C        0.89250000       2.67750000       9.81750000       0.00000000      -0.00560449      -0.00409680      -0.00795011      -0.00000000
C        1.78500000       0.00000000       8.92500000       0.00000000      -0.00233868      -0.00231759      -0.00466578       0.00030000
C        2.67750000       0.89250000       9.81750000       0.00000000      -0.00409680      -0.00560449      -0.00795011      -0.00000000
C        1.78500000       1.78500000       7.14000000       0.00000000      -0.00410939      -0.00410939       0.00103358       0.00030000
C        2.67750000       2.67750000       8.03250000       0.00000000      -0.00263230      -0.00263230      -0.00089346      -0.00060000
C        0.00000000       3.57000000       0.00000000       0.00000000      -0.00258602      -0.00941667      -0.00258602       0.00080000
C        0.89250000       4.46250000       0.89250000       0.00000000       0.00130895      -0.00985144       0.00130895       0.00080000
C        0.00000000       5.35500000       1.78500000       0.00000000      -0.00353450      -0.00553687      -0.00563560       0.00020000
C        0.89250000       6.24750000       2.67750000       0.00000000      -0.00413922       0.00027922      -0.00445778      -0.00030000
C        1.78500000       3.57000000       1.78500000       0.00000000       0.00362217      -0.00584129       0.00362217       0.00540000
C        2.67750000       4.46250000       2.67750000       0.00000000       0.00727828      -0.00739835       0.00727828       0.00090000
C        1.78500000       5.35500000       0.00000000       0.00000000      -0.00563560      -0.00553687      -0.00353450       0.00020000
C        2.67750000       6.24750000       0.89250000       0.00000000      -0.00445778       0.00027922      -0.00413922      -0.00030000
C        0.00000000       3.57000000       3.57000000       0.00000000      -0.00434568      -0.00832189      -0.00832189       0.00100000
C        0.89250000       4.46250000       4.46250000       0.00000000      -0.00557389      -0.00272177      -0.00272177      -0.00050000
C        0.00000000       5.35500000       5.35500000       0.00000000       0.00042218       0.00390113       0.00390113       0.00110000
C        0.89250000       6.24750000       6.24750000       0.00000000       0.00479974       0.00216924       0.00216924      -0.00100000
C        1.78500000       3.57000000       5.35500000       0.00000000       0.00284210       0.00120225      -0.00312106       0.00400000
C        2.67750000       4.46250000       6.24750000       0.00000000       0.01429559      -0.00063763      -0.01030910      -0.00390000
C        1.78500000       5.35500000       3.57000000       0.00000000       0.00284210      -0.00312106       0.00120225       0.00400000
C        2.67750000       6.24750000       4.46250000       0.00000000       0.01429559      -0.01030910      -0.00063763      -0.00390000
C        0.00000000       3.57000000       7.14000000       0.00000000      -0.00049288       0.00201369       0.00419064       0.00020000
C        0.89250000       4.46250000       8.03250000       0.00000000       0.00494963       0.00404615      -0.00353552       0.00240000
C        0.00000000       5.35500000       8.92500000       0.00000000       0.00208825       0.00327507       0.00027922       0.00140000
C        0.89250000       6.24750000       9.81750000       0.00000000      -0.00216770      -0.00357923       0.00323136      -0.00010000
C        1.78500000       3.57000000       8.92500000       0.00000000      -0.00448992       0.00002237      -0.00401889       0.00020000
C        2.67750000       4.46250000       9.81750000       0.00000000      -0.00705768      -0.00416596      -0.00148250      -0.00010000
C        1.78500000       5.35500000       7.14000000       0.00000000       0.00938401       0.00537386      -0.00517255       0.01650000
C        2.67750000       6.24750000       8.03250000       0.00000000      -0.00012110       0.00373941       0.00333446      -0.00100000
C        0.00000000       7.14000000       0.00000000       0.00000000       0.00130175      -0.00457862       0.00130175       0.00020000
C        0.89250000       8.03250000       0.89250000       0.00000000      -0.00030673      -0.00658717      -0.00030673      -0.00000000
C        0.00000000       8.92500000       1.78500000       0.00000000      -0.00231759      -0.00466578      -0.00233868       0.00030000
C        0.89250000       9.81750000       2.67750000       0.00000000      -0.00560449      -0.00795011      -0.00409680      -0.00000000
C        1.78500000       7.14000000       1.78500000       0.00000000      -0.00410939       0.00103358      -0.00410939       0.00030000
C        2.67750000       8.03250000       2.67750000       0.00000000      -0.00263230      -0.00089346      -0.00263230      -0.00060000
C        1.78500000       8.92500000       0.00000000       0.00000000      -0.00233868      -0.00466578      -0.00231759       0.00030000
C        2.67750000       9.81750000       0.89250000       0.00000000      -0.00409680      -0.00795011      -0.00560449      -0.00000000
C        0.00000000       7.14000000       3.57000000       0.00000000      -0.00049288       0.00419064       0.00201369       0.00020000
C        0.89250000       8.03250000       4.46250000       0.00000000       0.00494963      -0.00353552       0.00404615       0.00240000
C        0.00000000       8.92500000       5.35500000       0.00000000       0.00208825       0.00027922       0.00327507       0.00140000
C        0.89250000       9.81750000       6.24750000       0.00000000      -0.00216770       0.00323136      -0.00357923      -0.00010000
C        1.78500000       7.14000000       5.35500000       0.00000000       0.00938401      -0.00517255       0.00537386       0.01650000
C        2.67750000       8.03250000       6.24750000       0.00000000      -0.00012110       0.00333446       0.00373941      -0.00100000
C        1.78500000       8.92500000       3.57000000       0.00000000      -0.00448992      -0.00401889       0.00002237       0.00020000
C        2.67750000       9.81750000       4.46250000       0.00000000      -0.00705768      -0.00148250      -0.00416596      -0.00010000
C        0.00000000       7.14000000       7.14000000       0.00000000       0.00221835       0.00644113       0.00644113       0.00130000
C        0.89250000       8.03250000       8.03250000       0.00000000      -0.00282436       0.00712504       0.00712504      -0.00010000
C        0.00000000       8.92500000       8.92500000       0.00000000      -0.00093023       0.00058518       0.00058518       0.00050000
C        0.89250000       9.81750000       9.81750000       0.00000000      -0.00035635      -0.00506147      -0.00506147      -0.00000000
C        1.78500000       7.14000000       8.92500000       0.00000000      -0.00353090       0.00531756       0.00349439       0.00110000
C        2.67750000       8.03250000       9.81750000       0.00000000       0.00040495       0.00181546       0.00174629      -0.00010000
C        1.78500000       8.92500000       7.14000000       0.00000000      -0.00353090       0.00349439       0.00531756       0.00110000
C        2.67750000       9.81750000       8.03250000       0.00000000       0.00040495       0.00174629       0.00181546      -0.00010000
C        3.57000000       0.00000000       0.00000000       0.00000000      -0.00941667      -0.00258602      -0.00258602       0.00080000
C        4.46250000       0.89250000       0.89250000       0.00000000      -0.00985144       0.00130895       0.00130895       0.00080000
C        3.57000000       1.78500000       1.78500000       0.00000000      -0.00584129       0.00362217       0.00362217       0.00540000
C        4.46250000       2.67750000       2.67750000       0.00000000      -0.00739835       0.00727828       0.00727828       0.00090000
C        5.35500000       0.00000000       1.78500000       0.00000000      -0.00553687      -0.00353450      -0.00563560       0.00020000
C        6.24750000       0.89250000       2.67750000       0.00000000       0.00027922      -0.00413922      -0.00445778      -0.00030000
C        5.35500000       1.78500000       0.00000000       0.00000000      -0.00553687      -0.00563560      -0.00353450       0.00020000
C        6.24750000       2.67750000       0.89250000       0.00000000       0.00027922      -0.00445778      -0.00413922      -0.00030000
C        3.57000000       0.00000000       3.57000000       0.00000000      -0.00832189      -0.00434568      -0.00832189       0.00100000
C        4.46250000       0.89250000       4.46250000       0.00000000      -0.00272177      -0.00557389      -0.00272177      -0.00050000
C        3.57000000       1.78500000       5.35500000       0.00000000       0.00120225       0.00284210      -0.00312106       0.00400000
C        4.46250000       2.67750000       6.24750000       0.00000000      -0.00063763       0.01429559      -0.01030910      -0.00390000
C        5.35500000       0.00000000       5.35500000       0.00000000       0.00390113       0.00042218       0.00390113       0.00110000
C        6.24750000       0.89250000       6.24750000       0.00000000       0.00216924       0.00479974       0.00216924      -0.00100000
C        5.35500000       1.78500000       3.57000000       0.00000000      -0.00312106       0.00284210       0.00120225       0.00400000
C        6.24750000       2.67750000       4.46250000       0.00000000      -0.01030910       0.01429559      -0.00063763      -0.00390000
C        3.57000000       0.00000000       7.14000000       0.00000000       0.00201369      -0.00049288       0.00419064       0.00020000
C        4.46250000       0.89250000       8.03250000       0.00000000       0.00404615       0.00494963      -0.00353552       0.00240000
C        3.57000000       1.78500000       8.92500000       0.00000000       0.00002237      -0.00448992      -0.00401889       0.00020000
C        4.46250000       2.67750000       9.81750000       0.00000000      -0.00416596      -0.00705768      -0.00148250      -0.00010000
C        5.35500000       0.00000000       8.92500000       0.00000000       0.00327507       0.00208825       0.00027922       0.00140000
C        6.24750000       0.89250000       9.81750000       0.00000000      -0.00357923      -0.00216770       0.00323136      -0.00010000
C        5.35500000       1.78500000       7.14000000       0.00000000       0.00537386       0.00938401      -0.00517255       0.01650000
C        6.24750000       2.67750000       8.03250000       0.00000000       0.00373941      -0.00012110       0.00333446      -0.00100000
C        3.57000000       3.57000000       0.00000000       0.00000000      -0.00832189      -0.00832189      -0.00434568       0.00100000
C        4.46250000       4.46250000       0.89250000       0.00000000      -0.00272177      -0.00272177      -0.00557389      -0.00050000
C        3.57000000       5.35500000       1.78500000       0.00000000       0.00120225      -0.00312106       0.00284210       0.00400000
C        4.46250000       6.24750000       2.67750000       0.00000000      -0.00063763      -0.01030910       0.01429559      -0.00390000
C        5.35500000       3.57000000       1.78500000       0.00000000      -0.00312106       0.00120225       0.00284210       0.00400000
C        6.24750000       4.46250000       2.67750000       0.00000000      -0.01030910      -0.00063763       0.01429559      -0.00390000
C        5.35500000       5.35500000       0.00000000       0.00000000       0.00390113       0.00390113       0.00042218       0.00110000
C        6.24750000       6.24750000       0.89250000       0.00000000       0.00216924       0.00216924       0.00479974      -0.00100000
N        3.57000000       3.57000000       3.57000000       2.00000000      -0.00337663      -0.00337663      -0.00337663       0.07980000
C        3.57000000       5.35500000       5.35500000       0.00000000       0.00908114       0.00205225       0.00205225       0.22120000
C        4.46250000       6.24750000       6.24750000       0.00000000       0.00529030      -0.00731787      -0.00731787      -0.00360000
C        5.35500000       3.57000000       5.35500000       0.00000000       0.00205225       0.00908114       0.00205225       0.22120000
C        6.24750000       4.46250000       6.24750000       0.00000000      -0.00731787       0.00529030      -0.00731787      -0.00360000
C        5.35500000       5.35500000       3.57000000       0.00000000       0.00205225       0.00205225       0.00908114       0.22120000
C        6.24750000       6.24750000       4.46250000       0.00000000      -0.00731787      -0.00731787       0.00529030      -0.00360000
C        3.57000000       3.57000000       7.14000000       0.00000000       0.00419810       0.00419810      -0.00203040       0.00520000
C        4.46250000       4.46250000       8.03250000       0.00000000       0.00220215       0.00220215       0.00715692      -0.00080000
C        3.57000000       5.35500000       8.92500000       0.00000000      -0.00088600       0.00469355       0.00362603       0.00120000
C        4.46250000       6.24750000       9.81750000       0.00000000      -0.00059650       0.00445624       0.00400424      -0.00010000
C        5.35500000       3.57000000       8.92500000       0.00000000       0.00469355      -0.00088600       0.00362603       0.00120000
C        6.24750000       4.46250000       9.81750000       0.00000000       0.00445624      -0.00059650       0.00400424      -0.00010000
C        5.35500000       5.35500000       7.14000000       0.00000000       0.00400089       0.00400089       0.00097753       0.00560000
C        6.24750000       6.24750000       8.03250000       0.00000000       0.00626475       0.00626475       0.00800436      -0.00030000
C        3.57000000       7.14000000       0.00000000       0.00000000       0.00201369       0.00419064      -0.00049288       0.00020000
C        4.46250000       8.03250000       0.89250000       0.00000000       0.00404615      -0.00353552       0.00494963       0.00240000
C        3.57000000       8.92500000       1.78500000       0.00000000       0.00002237      -0.00401889      -0.00448992       0.00020000
C        4.46250000       9.81750000       2.67750000       0.00000000      -0.00416596      -0.00148250      -0.00705768      -0.00010000
C        5.35500000       7.14000000       1.78500000       0.00000000       0.00537386      -0.00517255       0.00938401       0.01650000
C        6.24750000       8.03250000       2.67750000       0.00000000       0.00373941       0.00333446      -0.00012110      -0.00100000
C        5.35500000       8.92500000       0.00000000       0.00000000       0.00327507       0.00027922       0.00208825       0.00140000
C        6.24750000       9.81750000       0.89250000       0.00000000      -0.00357923       0.00323136      -0.00216770      -0.00010000
C        3.57000000       7.14000000       3.57000000       0.00000000       0.00419810      -0.00203040       0.00419810       0.00520000
C        4.46250000       8.03250000       4.46250000       0.00000000       0.00220215       0.00715692       0.00220215      -0.00080000
C        3.57000000       8.92500000       5.35500000       0.00000000      -0.00088600       0.00362603       0.00469355       0.00120000
C        4.46250000       9.81750000       6.24750000       0.00000000      -0.00059650       0.00400424       0.00445624      -0.00010000
C        5.35500000       7.14000000       5.35500000       0.00000000       0.00400089       0.00097753       0.00400089       0.00560000
C        6.24750000       8.03250000       6.24750000       0.00000000       0.00626475       0.00800436       0.00626475      -0.00030000
C        5.35500000       8.92500000       3.57000000       0.00000000       0.00469355       0.00362603      -0.00088600       0.00120000
C        6.24750000       9.81750000       4.46250000       0.00000000       0.00445624       0.00400424      -0.00059650      -0.00010000
C        3.57000000       7.14000000       7.14000000       0.00000000       0.00194453      -0.00339334      -0.00339334       0.01600000
C        4.46250000       8.03250000       8.03250000       0.00000000      -0.00212579      -0.00049854      -0.00049854       0.00270000
C        3.57000000       8.92500000       8.92500000       0.00000000      -0.00338589      -0.00037384      -0.00037384       0.00140000
C        4.46250000       9.81750000       9.81750000       0.00000000      -0.00214301       0.00120019       0.00120019       0.00150000
C        5.35500000       7.14000000       8.92500000       0.00000000       0.00246029       0.00678771       0.00567211       0.00020000
C        6.24750000       8.03250000       9.81750000       0.00000000       0.00166736       0.00709136       0.00431585      -0.00000000
C        5.35500000       8.92500000       7.14000000       0.00000000       0.00246029       0.00567211       0.00678771       0.00020000
C        6.24750000       9.81750000       8.03250000       0.00000000       0.00166736       0.00431585       0.00709136      -0.00000000
C        7.14000000       0.00000000       0.00000000       0.00000000      -0.00457862       0.00130175       0.00130175       0.00020000
C        8.03250000       0.89250000       0.89250000       0.00000000      -0.00658717      -0.00030673      -0.00030673      -0.00000000
C        7.14000000       1.78500000       1.78500000       0.00000000       0.00103358      -0.00410939      -0.00410939       0.00030000
C        8.03250000       2.67750000       2.67750000       0.00000000      -0.00089346      -0.00263230      -0.00263230      -0.00060000
C        8.92500000       0.00000000       1.78500000       0.00000000      -0.00466578      -0.00231759      -0.00233868       0.00030000
C        9.81750000       0.89250000       2.67750000       0.00000000      -0.00795011      -0.00560449      -0.00409680      -0.00000000
C        8.92500000       1.78500000       0.00000000       0.00000000      -0.00466578      -0.00233868      -0.00231759       0.00030000
C        9.81750000       2.67750000       0.89250000       0.00000000      -0.00795011      -0.00409680      -0.00560449      -0.00000000
C        7.14000000       0.00000000       3.57000000       0.00000000       0.00419064      -0.00049288       0.00201369       0.00020000
C        8.03250000       0.89250000       4.46250000       0.00000000      -0.00353552       0.00494963       0.00404615       0.00240000
C        7.14000000       1.78500000       5.35500000       0.00000000      -0.00517255       0.00938401       0.00537386       0.01650000
C        8.03250000       2.67750000       6.24750000       0.00000000       0.00333446      -0.00012110       0.00373941      -0.00100000
C        8.92500000       0.00000000       5.35500000       0.00000000       0.00027922       0.00208825       0.00327507       0.00140000
C        9.81750000       0.89250000       6.24750000       0.00000000       0.00323136      -0.00216770      -0.00357923      -0.00010000
C        8.92500000       1.78500000       3.57000000       0.00000000      -0.00401889      -0.00448992       0.00002237       0.00020000
C        9.81750000       2.67750000       4.46250000       0.00000000      -0.00148250      -0.00705768      -0.00416596      -0.00010000
C        7.14000000       0.00000000       7.14000000       0.00000000       0.00644113       0.00221835       0.00644113       0.00130000
C        8.03250000       0.89250000       8.03250000       0.00000000       0.00712504      -0.00282436       0.00712504      -0.00010000
C        7.14000000       1.78500000       8.92500000       0.00000000       0.00531756      -0.00353090       0.00349439       0.00110000
C        8.03250000       2.67750000       9.81750000       0.00000000       0.00181546       0.00040495       0.00174629      -0.00010000
C        8.92500000       0.00000000       8.92500000       0.00000000       0.00058518      -0.00093023       0.00058518       0.00050000
C        9.81750000       0.89250000       9.81750000       0.00000000      -0.00506147      -0.00035635      -0.00506147      -0.00000000
C        8.92500000       1.78500000       7.14000000       0.00000000       0.00349439      -0.00353090       0.00531756       0.00110000
C        9.81750000       2.67750000       8.03250000       0.00000000       0.00174629       0.00040495       0.00181546      -0.00010000
C        7.14000000       3.57000000       0.00000000       0.00000000       0.00419064       0.00201369      -0.00049288       0.00020000
C        8.03250000       4.46250000       0.89250000       0.00000000      -0.00353552       0.00404615       0.00494963       0.00240000
C        7.14000000       5.35500000       1.78500000       0.00000000      -0.00517255       0.00537386       0.00938401       0.01650000
C        8.03250000       6.24750000       2.67750000       0.00000000       0.00333446       0.00373941      -0.00012110      -0.00100000
C        8.92500000       3.57000000       1.78500000       0.00000000      -0.00401889       0.00002237      -0.00448992       0.00020000
C        9.81750000       4.46250000       2.67750000       0.00000000      -0.00148250      -0.00416596      -0.00705768      -0.00010000
C        8.92500000       5.35500000       0.00000000       0.00000000       0.00027922       0.00327507       0.00208825       0.00140000
C        9.81750000       6.24750000       0.89250000       0.00000000       0.00323136      -0.00357923      -0.00216770      -0.00010000
C        7.14000000       3.57000000       3.57000000       0.00000000      -0.00203040       0.00419810       0.00419810       0.00520000
C        8.03250000       4.46250000       4.46250000       0.00000000       0.00715692       0.00220215       0.00220215      -0.00080000
C        7.14000000       5.35500000       5.35500000       0.00000000       0.00097753       0.00400089       0.00400089       0.00560000
C        8.03250000       6.24750000       6.24750000       0.00000000       0.00800436       0.00626475       0.00626475      -0.00030000
C        8.92500000       3.57000000       5.35500000       0.00000000       0.00362603      -0.00088600       0.00469355       0.00120000
C        9.81750000       4.46250000       6.24750000       0.00000000       0.00400424      -0.00059650       0.00445624      -0.00010000
C        8.92500000       5.35500000       3.57000000       0.00000000       0.00362603       0.00469355      -0.00088600       0.00120000
C        9.81750000       6.24750000       4.46250000       0.00000000       0.00400424       0.00445624      -0.00059650      -0.00010000
C        7.14000000       3.57000000       7.14000000       0.00000000      -0.00339334       0.00194453      -0.00339334       0.01600000
C        8.03250000       4.46250000       8.03250000       0.00000000      -0.00049854      -0.00212579      -0.00049854       0.00270000
C        7.14000000       5.35500000       8.92500000       0.00000000       0.00678771       0.00246029       0.00567211       0.00020000
C        8.03250000       6.24750000       9.81750000       0.00000000       0.00709136       0.00166736       0.00431585      -0.00000000
C        8.92500000       3.57000000       8.92500000       0.00000000      -0.00037384      -0.00338589      -0.00037384       0.00140000
C        9.81750000       4.46250000       9.81750000       0.00000000       0.00120019      -0.00214301       0.00120019       0.00150000
C        8.92500000       5.35500000       7.14000000       0.00000000       0.00567211       0.00246029       0.00678771       0.00020000
C        9.81750000       6.24750000       8.03250000       0.00000000       0.00431585       0.00166736       0.00709136      -0.00000000
C        7.14000000       7.14000000       0.00000000       0.00000000       0.00644113       0.00644113       0.00221835       0.00130000
C        8.03250000       8.03250000       0.89250000       0.00000000       0.00712504       0.00712504      -0.00282436      -0.00010000
C        7.14000000       8.92500000       1.78500000       0.00000000       0.00531756       0.00349439      -0.00353090       0.00110000
C        8.03250000       9.81750000       2.67750000       0.00000000       0.00181546       0.00174629       0.00040495      -0.00010000
C        8.92500000       7.14000000       1.78500000       0.00000000       0.00349439       0.00531756      -0.00353090       0.00110000
C        9.81750000       8.03250000       2.67750000       0.00000000       0.00174629       0.00181546       0.00040495      -0.00010000
C        8.92500000       8.92500000       0.00000000       0.00000000       0.00058518       0.00058518      -0.00093023       0.00050000
C        9.81750000       9.81750000       0.89250000       0.00000000      -0.00506147      -0.00506147      -0.00035635      -0.00000000
C        7.14000000       7.14000000       3.57000000       0.00000000      -0.00339334      -0.00339334       0.00194453       0.01600000
C        8.03250000       8.03250000       4.46250000       0.00000000      -0.00049854      -0.00049854      -0.00212579       0.00270000
C        7.14000000       8.92500000       5.35500000       0.00000000       0.00678771       0.00567211       0.00246029       0.00020000
C        8.03250000       9.81750000       6.24750000       0.00000000       0.00709136       0.00431585       0.00166736      -0.00000000
C        8.92500000       7.14000000       5.35500000       0.00000000       0.00567211       0.00678771       0.00246029       0.00020000
C        9.81750000       8.03250000       6.24750000       0.00000000       0.00431585       0.00709136       0.00166736      -0.00000000
C        8.92500000       8.92500000       3.57000000       0.00000000      -0.00037384      -0.00037384      -0.00338589       0.00140000
C        9.81750000       9.81750000       4.46250000       0.00000000       0.00120019       0.00120019      -0.00214301       0.00150000
C        7.14000000       7.14000000       7.14000000       0.00000000       0.01031707       0.01031707       0.01031707       0.00060000
C        8.03250000       8.03250000       8.03250000       0.00000000       0.00715229       0.00715229       0.00715229       0.00020000
C        7.14000000       8.92500000       8.92500000       0.00000000       0.00249243       0.00496094       0.00496094       0.00030000
C        8.03250000       9.81750000       9.81750000       0.00000000      -0.00247006       0.00429554       0.00429554       0.00000000
C        8.92500000       7.14000000       8.92500000       0.00000000       0.00496094       0.00249243       0.00496094       0.00030000
C        9.81750000       8.03250000       9.81750000       0.00000000       0.00429554      -0.00247006       0.00429554       0.00000000
C        8.92500000       8.92500000       7.14000000       0.00000000       0.00496094       0.00496094       0.00249243       0.00030000